     216
 i =       0, E =    -2602.4598556428
 Si         1.3852730000       10.2405410000        4.2659350000
  O         1.8135740000       11.1196940000        2.9665940000
  O         0.5825220000        9.0060090000        3.6289980000
  O         0.4923150000        6.4983630000        3.9657070000
 Si        14.3411400000        7.7946210000        3.8126330000
  O         0.4100200000       10.7213300000        0.6681950000
  O         2.6634190000        9.8263490000        5.1871850000
 Si         1.1115820000        7.3274140000        0.1220320000
  O         3.0392140000       10.2327180000        0.8195040000
 Si         1.8076290000       11.1183710000        1.3563470000
  O        14.7430720000        8.3974480000       14.7488010000
  O         1.1528910000        6.6099460000        1.5478660000
  O         0.4058670000       11.1189590000        5.1914300000
 Si         1.6200400000        5.9835230000        2.9517210000
  O         3.1236300000        6.5112890000        3.1343680000
  O        13.6792640000        8.0056060000        5.2696530000
 Si         4.4997280000        6.0768960000        3.8403630000
 Si        14.2127690000        9.9284410000       14.5678560000
 Si         3.5723130000        9.2504990000       14.5056830000
  O         2.5546860000        7.9878750000       14.5805740000
 Si         4.0641160000       10.0784400000        5.9787690000
  O        12.7082940000       10.3751390000       14.9167100000
  O         4.7917820000       11.3807700000        5.3530950000
  O        13.2041280000        7.6717750000        2.7298190000
  O         5.1194880000        8.9039530000        5.7717800000
  O         0.8267940000        6.0877360000       13.9927800000
  O        13.0206880000       12.4436910000        5.7761950000
  O         4.1892650000        5.6212800000        5.3426770000
  O         2.0372650000       12.5932500000        0.8314940000
 Si        12.7233250000        7.1053010000        6.1782570000
 Si        14.2790650000       11.6106820000        6.3702250000
  O         5.1192220000        8.9838330000       -0.0139810000
  O         5.4457730000        7.3365600000        3.8716800000
  O         6.9179580000        7.0099790000        6.1104340000
  O         7.7587080000        8.7376010000       14.0105000000
  O        11.6922370000        6.2428110000        5.2765170000
 Si         6.3233490000        8.0585740000        5.0401840000
 Si         6.5492650000        8.2357560000        0.1102080000
  O         7.4914760000        8.7408210000        4.1286010000
  O         7.0919270000        8.4794680000        1.5813510000
 Si        11.4268780000        7.9281220000        2.5178060000
  O        11.4562850000        7.0147400000        1.0719450000
  O        11.6261960000        9.5530780000        2.2230420000
 Si        11.3309390000       10.4216710000        0.9405590000
  O        10.9588390000       11.9457540000        1.4108990000
  O         9.6385520000        8.2371170000        2.5471160000
 Si         8.0981330000        8.0320690000        2.7939050000
  O         7.8355420000        6.4289360000        2.8833440000
  O        10.1263710000        9.8837310000       14.8318430000
 Si         6.0768510000       12.2386450000        5.8230460000
 Si        11.4555480000       12.0451780000        5.6345430000
  O        11.1112360000       12.1162910000        4.0772840000
  O         6.1784490000        6.7468410000       14.4221990000
 Si        11.1690390000        5.4654310000        0.8666390000
  O        11.3030180000       10.5543750000        6.2634930000
  O         7.1656360000       12.4415200000        4.6287870000
  O         3.8736830000        3.0726640000        5.3534340000
  O         2.4723910000        0.9087060000        5.6053160000
  O         1.7235410000        4.3674210000        3.1308870000
  O         0.6496360000        1.9775370000       14.5127610000
 Si         2.8033540000       13.7894600000        0.1626290000
  O         2.0622590000        0.2264840000        0.8211970000
  O         0.5730780000        2.4778010000        4.7790690000
  O         1.0779380000        1.9713020000        2.3070130000
 Si         0.7061350000        1.0828190000        1.0334800000
  O        14.0928700000        0.3380700000        1.3188770000
 Si         0.6887890000        3.1451180000        3.3173930000
  O         4.3748180000       13.5998460000        0.4977610000
  O        14.1027970000        3.7123800000        2.8892730000
 Si         3.9714710000        1.4697360000        5.4407740000
 Si         4.7440060000        3.1382850000       14.4977050000
  O         3.1373180000        2.9618890000       14.3487020000
 Si         1.0798340000        1.6065710000        6.0268100000
  O         4.6182960000        0.6610750000        4.1952070000
 Si         4.3521780000        4.3354420000        6.2627820000
  O         5.1983190000        4.8706790000        3.0529650000
  O        10.3703280000        4.2908860000        6.2729590000
  O         5.2738330000        3.2177070000        1.1578680000
  O         7.6438270000        4.0293570000        2.2203160000
  O         5.1270690000        4.4886380000       13.7497210000
  O         9.0842370000        0.2298980000       14.4194280000
  O         9.5893580000        5.2072500000        1.1591610000
 Si        10.7403440000       12.8840030000        2.7127470000
  O         6.8508670000       13.7543680000       14.5800940000
  O        11.6315450000        0.5028830000        0.3387320000
  O        12.2800840000        1.8946590000        2.4724190000
 Si         5.8767790000       13.8865850000        1.0162360000
  O        11.9484050000        3.7151160000        4.3645500000
  O         5.7643670000        0.4960040000        1.7408580000
 Si         5.9517520000        0.9045470000        3.3016110000
  O         9.7392690000        4.9469700000        3.7977890000
 Si         8.7392900000        5.1676380000        2.5343760000
 Si        12.5362130000        3.4356670000        2.8969170000
  O        11.7802380000       14.1467750000        2.5620600000
 Si        12.4881090000        0.4945840000        1.6970000000
  O        11.6229420000        4.8581450000       14.2597890000
 Si         6.0893750000        3.7061160000        2.4522270000
  O         6.1856820000        2.4659960000        3.4662370000
  O         6.5832030000       12.9401160000        2.1397480000
 Si        10.4962570000        0.9487070000       14.1504840000
  O        11.9473110000        4.5171160000        1.9024190000
  O        10.2974160000        2.5566990000       14.1755800000
  O         9.1484940000       13.2693770000        2.8850940000
 Si         7.5957570000       13.3417380000        3.3601860000
  O         7.2316140000       14.8716030000        3.7894350000
 Si        10.9263750000        4.8550980000        4.8952030000
  O         3.2273880000       10.3014670000       10.2953730000
 Si         3.7989740000       11.1078190000        9.0043010000
 Si        13.3598450000        9.9019960000       11.6971700000
  O        14.1632040000        8.6314230000       11.0410030000
 Si         4.0060690000        9.5351720000       11.4932800000
 Si        13.8292520000        7.0233870000       11.0186460000
  O         3.6323460000        8.0094970000       11.2144710000
 Si         3.8115570000        6.4298080000       11.2512670000
  O        13.6851020000        6.5999980000        9.4777480000
  O         0.1589330000        6.0229540000       11.5391440000
  O         3.7908080000       10.3081430000        7.5905510000
  O         1.2464020000        6.0253510000        8.3286170000
  O        13.6822390000        6.1005110000        6.9923980000
  O         3.5312440000        9.8910080000       13.0042400000
 Si        14.4606860000        5.7696720000        8.3401580000
  O        14.2600530000       10.3066050000       12.9749180000
  O         2.7099220000        5.7683680000       12.2051270000
  O        13.6746660000       10.3835860000        7.2544330000
  O         3.5440540000        5.8510360000        9.7786670000
  O         2.8967450000       12.4211840000        8.8921900000
 Si         1.2018180000        5.4052550000       12.6071620000
  O        12.9358710000       11.2054670000       10.7929560000
  O         5.2737720000        6.1841030000       11.8694940000
 Si         2.5453420000        5.1162260000        8.7646990000
  O         5.2722610000       11.6188420000        9.4762300000
  O        12.4374880000        6.8412910000       11.8601420000
  O        12.0327340000        8.1784950000        7.1740900000
  O         5.5997130000        9.8900590000       11.3611450000
  O        11.8790110000        9.3281040000       12.0337680000
 Si        12.1535120000        9.7681460000        7.4124520000
  O        11.6189620000       10.0436280000        8.9231500000
  O         7.3182670000       10.0683830000        9.2471980000
 Si        11.5357150000       11.3253300000        9.9351020000
  O        10.4719490000        7.7492970000       10.3891320000
 Si         6.4218840000       10.8395800000       10.3151660000
  O         6.5149480000        6.0864920000        8.4103770000
 Si         7.0805400000        7.5994160000        7.7009120000
  O         8.5619130000        7.5814490000        8.4956920000
 Si        11.1690210000        7.8867190000       11.8351110000
  O         7.4490020000       11.8427570000       11.0569530000
 Si         9.5243220000        6.8117850000        9.4683330000
  O         9.2268300000       11.2231450000        7.9273040000
 Si         8.8937410000       11.7184880000       11.8010800000
  O         7.6633360000        9.1511290000        6.9113930000
  O        10.2264020000       11.6238590000       10.8723410000
 Si         7.7952640000       10.4742720000        7.7387960000
  O         8.7219960000        5.9101290000       10.5463910000
  O        10.0558690000        7.9099520000       13.0156690000
  O         8.9784410000       10.3135890000       12.5436150000
  O        10.3919840000        5.8505910000        8.4890290000
 Si         6.0267360000        5.6960610000       13.2145910000
  O         6.8399050000       11.6204830000        7.0853950000
  O        11.3661720000       12.5460300000        8.8718280000
  O         7.4984840000        5.2657750000       12.7781160000
 Si         9.2593970000        9.1950720000       13.6599680000
  O         0.3320190000       12.6289880000        7.2515730000
  O         0.0916850000        0.4051970000        6.5096520000
  O         3.3773930000        4.6138580000        7.5050940000
  O         1.2293130000        2.6338980000        7.2587930000
  O         1.8813020000       14.5964400000        8.2334310000
  O        14.3210360000        4.1831760000        8.5644190000
 Si         0.4117400000       14.1643960000        7.7004220000
  O         2.6536300000       14.3325300000       10.7071440000
  O        14.1717340000       14.3322260000        8.8988030000
 Si         3.0391140000       13.9907420000        9.1723090000
 Si         0.6593130000        3.0911860000        8.6972220000
  O         1.8941010000        3.7933690000        9.4738010000
  O        14.8329600000        1.8825370000        9.4828920000
 Si         3.0015760000       14.8380840000       12.1917510000
 Si        13.5793320000        0.8761700000        9.4552850000
  O         2.2380230000        1.4065300000       12.4464650000
  O         4.5264950000       14.4991020000        8.7440780000
  O         4.6098100000        0.0802320000       12.2753580000
  O        13.0297180000        0.8184180000       10.9690330000
  O         1.1481860000        3.8010990000       12.7626480000
  O         2.5667700000       13.8380060000       13.3898050000
  O         4.8575200000        1.2378910000        6.7569300000
 Si         1.8037160000        2.5424110000       13.5189990000
  O         9.9651790000        4.6079420000       12.4249380000
 Si        10.8378490000        1.8158240000        8.8062760000
  O         8.3348880000        4.2796790000        7.8202410000
 Si         6.7536290000        4.5720330000        8.0261230000
  O         9.6450780000        1.1488130000        7.9247520000
  O         5.5230690000        1.8892310000       13.8454830000
  O         6.3466540000        3.4586970000        9.1533680000
 Si         5.4595950000       14.7586750000        7.4324400000
 Si         8.5686450000        4.8102260000       11.6816150000
  O        11.0411130000        0.4941220000       12.6992430000
  O         7.8258490000        1.2124080000        9.7911340000
  O        10.4703850000       13.0222180000        6.5027780000
 Si        11.6840400000        1.4476880000       11.5876650000
 Si         9.9747260000       12.6470890000        8.0080300000
 Si        10.9835550000        3.7466350000       13.2934620000
  O         5.8605010000        4.1166680000        6.7508610000
  O         5.3619610000       13.5911900000        6.3446590000
  O        10.6260930000        1.4886020000       10.3772130000
  O         8.1654100000        3.3909100000       11.0526520000
  O         8.9783580000       13.6961230000        8.7374640000
  O         5.8620950000        2.1402270000       11.2725510000
 Si         8.0191650000       14.1969840000       13.5605890000
 Si         8.3603420000        0.3494450000        8.5391920000
  O        12.3523510000        1.3226440000        8.4860400000
  O         7.2469860000        0.3311470000       12.5239420000
  O        10.7147670000        3.3845430000        8.6492490000
  O         8.8215130000       13.0155380000       12.7931150000
 Si         7.0526600000        2.5548260000       10.2652890000
 Si         9.9204030000        4.4836870000        7.7883670000
  O         7.0271160000        0.1677560000        7.6654660000
  O        11.9529730000        2.9002540000       12.2786680000
 Si         5.8287030000        1.0968100000       12.4845410000
     216
 i =       1, E =    -2602.4598338096
 Si         1.3853095530       10.2405039329        4.2659504467
  O         1.8136564779       11.1197610234        2.9666128640
  O         0.5826552243        9.0062539047        3.6292734125
  O         0.4924027815        6.4982232036        3.9659436542
 Si        14.3425478087        7.7947242458        3.8144189163
  O         0.4101110341       10.7215139835        0.6682565934
  O         2.6636648319        9.8263802718        5.1872579630
 Si         1.1114754533        7.3273046735        0.1219761597
  O         3.0393660383       10.2327451838        0.8196012895
 Si         1.8077087113       11.1185470010        1.3563324924
  O        14.7431870776        8.3974242522       14.7486794482
  O         1.1530529019        6.6098498056        1.5477433207
  O         0.4058299145       11.1191219961        5.1914323514
 Si         1.6198619802        5.9834289382        2.9516184244
  O         3.1238635595        6.5112321173        3.1344316629
  O        13.6798793188        8.0054021938        5.2693179442
 Si         4.4993885420        6.0768574412        3.8398792289
 Si        14.2126493188        9.9284071781       14.5677565783
 Si         3.5721740964        9.2504736523       14.5055551051
  O         2.5548028185        7.9879051545       14.5806736376
 Si         4.0633409740       10.0784579487        5.9792391249
  O        12.7084718317       10.3753276123       14.9165529540
  O         4.7918599765       11.3808509153        5.3529353849
  O        13.2032216137        7.6712498792        2.7291552708
  O         5.1201166027        8.9036687475        5.7712421549
  O         0.8267801288        6.0877334832       13.9928573481
  O        13.0206546474       12.4436153853        5.7761268958
  O         4.1894845756        5.6213899466        5.3428079209
  O         2.0372754029       12.5933114690        0.8314836266
 Si        12.7226349823        7.1052432513        6.1773918998
 Si        14.2790573433       11.6105008442        6.3703519627
  O         5.1192930071        8.9838844521       -0.0138901330
  O         5.4462691950        7.3367127946        3.8720237132
  O         6.9187543203        7.0091605905        6.1105032855
  O         7.7586891453        8.7376796749       14.0105278330
  O        11.6926261567        6.2430828730        5.2777497749
 Si         6.3221616442        8.0592250983        5.0385513304
 Si         6.5491366557        8.2356949817        0.1102177303
  O         7.4909588484        8.7407006720        4.1298132457
  O         7.0918300441        8.4795760658        1.5815282045
 Si        11.4263184760        7.9263836350        2.5199586866
  O        11.4568773634        7.0153000189        1.0691562394
  O        11.6262027678        9.5539128590        2.2223326622
 Si        11.3309637948       10.4220382457        0.9402163153
  O        10.9586874732       11.9460677278        1.4108666659
  O         9.6403482327        8.2380034954        2.5474319058
 Si         8.0960821347        8.0314629126        2.7940818906
  O         7.8354351529        6.4294877001        2.8834973803
  O        10.1261427961        9.8837771225       14.8317158989
 Si         6.0765794766       12.2388382610        5.8225806991
 Si        11.4557964968       12.0450457374        5.6342748773
  O        11.1111094165       12.1163484758        4.0773557854
  O         6.1784884157        6.7468062564       14.4221592138
 Si        11.1690622717        5.4656642180        0.8679912354
  O        11.3028644235       10.5545425824        6.2637553446
  O         7.1656456699       12.4413066092        4.6290177292
  O         3.8738543259        3.0726472128        5.3537812109
  O         2.4723407950        0.9088338938        5.6052430182
  O         1.7235726838        4.3674893234        3.1307546438
  O         0.6497355254        1.9775310194       14.5125115462
 Si         2.8033193777       13.7894787496        0.1627079723
  O         2.0623172564        0.2264436746        0.8211955020
  O         0.5731098337        2.4776699919        4.7791711026
  O         1.0779036868        1.9712225978        2.3070401344
 Si         0.7060257735        1.0827241169        1.0336930487
  O        14.0929833412        0.3380480261        1.3189070135
 Si         0.6886120779        3.1452042472        3.3172790936
  O         4.3748128907       13.5997621232        0.4978746932
  O        14.1030944876        3.7121968623        2.8893133229
 Si         3.9712804923        1.4696521593        5.4404735817
 Si         4.7435674219        3.1383531009       14.4976524499
  O         3.1372860497        2.9619140975       14.3486829170
 Si         1.0796745207        1.6065191308        6.0267700046
  O         4.6182241609        0.6610833358        4.1951036565
 Si         4.3515404920        4.3352825828        6.2627542492
  O         5.1983164834        4.8708953527        3.0529643582
  O        10.3699673071        4.2907129252        6.2736036019
  O         5.2737692257        3.2177363511        1.1578957070
  O         7.6434646726        4.0292840968        2.2202774702
  O         5.1271621649        4.4886988811       13.7497118208
  O         9.0840272963        0.2298187610       14.4194885929
  O         9.5889222243        5.2071492770        1.1589656191
 Si        10.7405150484       12.8839592386        2.7125475191
  O         6.8509742629       13.7542135594       14.5800802978
  O        11.6315224971        0.5028540479        0.3385996273
  O        12.2801676560        1.8942737653        2.4722712102
 Si         5.8766987160       13.8863230275        1.0162623193
  O        11.9484993159        3.7146088921        4.3647278009
  O         5.7643955396        0.4959950857        1.7410333500
 Si         5.9517705247        0.9046115983        3.3014261412
  O         9.7379094179        4.9459465731        3.7980016697
 Si         8.7406875784        5.1674192561        2.5347308756
 Si        12.5359593381        3.4362751763        2.8968634984
  O        11.7801760312       14.1466349598        2.5622198370
 Si        12.4882002863        0.4948528570        1.6971483685
  O        11.6231075777        4.8578570091       14.2595263687
 Si         6.0897857462        3.7060530582        2.4519115634
  O         6.1857485538        2.4659549509        3.4662438631
  O         6.5831706452       12.9399699516        2.1397752460
 Si        10.4963807878        0.9489791719       14.1506972056
  O        11.9475975485        4.5164412231        1.9020150043
  O        10.2974293463        2.5565439426       14.1754894641
  O         9.1483508452       13.2692602299        2.8852455884
 Si         7.5959324139       13.3418900794        3.3599759084
  O         7.2316719439       14.8716227396        3.7894443468
 Si        10.9267030076        4.8561556225        4.8932701689
  O         3.2272194624       10.3016577872       10.2954567010
 Si         3.7990987277       11.1069441413        9.0043491216
 Si        13.3600511088        9.9022563657       11.6970378609
  O        14.1631676399        8.6315180891       11.0410793916
 Si         4.0061081821        9.5350860063       11.4928167361
 Si        13.8292957310        7.0233881293       11.0186889833
  O         3.6322106885        8.0093857344       11.2146212561
 Si         3.8117061541        6.4301839437       11.2510676753
  O        13.6851471310        6.5999255163        9.4779010026
  O         0.1587637273        6.0230228611       11.5391954653
  O         3.7904703812       10.3082704085        7.5901014807
  O         1.2465546758        6.0252945251        8.3285680018
  O        13.6825499388        6.1005087756        6.9926388392
  O         3.5312388852        9.8910662106       13.0043609922
 Si        14.4605154448        5.7696766428        8.3396870094
  O        14.2600255261       10.3066193772       12.9747188322
  O         2.7099178807        5.7683955316       12.2052862691
  O        13.6746412289       10.3836256020        7.2542867985
  O         3.5440605871        5.8509010715        9.7785685016
  O         2.8966653846       12.4212109901        8.8922493741
 Si         1.2017564872        5.4053203885       12.6072875768
  O        12.9358778377       11.2055406534       10.7930013228
  O         5.2738986359        6.1840850610       11.8695103659
 Si         2.5453106908        5.1164045503        8.7647409082
  O         5.2724643753       11.6189838932        9.4765345291
  O        12.4374907108        6.8415296228       11.8599653638
  O        12.0328945208        8.1789755106        7.1743070478
  O         5.5999059523        9.8903794887       11.3612596011
  O        11.8790077158        9.3280438309       12.0336036009
 Si        12.1537338124        9.7677448302        7.4122374288
  O        11.6188373171       10.0438080600        8.9229496050
  O         7.3191580100       10.0679924555        9.2462170503
 Si        11.5360325821       11.3255980508        9.9351001210
  O        10.4714770014        7.7491848329       10.3887920881
 Si         6.4206932463       10.8394786122       10.3155264784
  O         6.5137690199        6.0914029204        8.4113407609
 Si         7.0825374412        7.5972795843        7.7003665609
  O         8.5614383422        7.5820778057        8.4946192567
 Si        11.1694704480        7.8868499444       11.8356377459
  O         7.4490260827       11.8427199076       11.0570378280
 Si         9.5256153432        6.8112402712        9.4698276267
  O         9.2264999777       11.2226104495        7.9271721270
 Si         8.8938537640       11.7185143185       11.8013861186
  O         7.6618748243        9.1493798676        6.9116044992
  O        10.2264587410       11.6238145786       10.8721156492
 Si         7.7955193233       10.4775389615        7.7408593256
  O         8.7219782344        5.9106700053       10.5459491748
  O        10.0557168525        7.9102001596       13.0154760954
  O         8.9783877870       10.3136936208       12.5435688258
  O        10.3914566979        5.8507947549        8.4892862023
 Si         6.0267291671        5.6960059825       13.2147910643
  O         6.8401660959       11.6198259217        7.0854859126
  O        11.3659013657       12.5458331997        8.8719611511
  O         7.4984332559        5.2657116988       12.7780338820
 Si         9.2592627897        9.1949380528       13.6599205183
  O         0.3320284870       12.6290112571        7.2515817137
  O         0.0916969601        0.4052503903        6.5096325375
  O         3.3774920816        4.6138648870        7.5049872049
  O         1.2292203935        2.6338273622        7.2588737025
  O         1.8812142072       14.5964002873        8.2333632418
  O        14.3210980145        4.1832486923        8.5643864960
 Si         0.4116237722       14.1641271378        7.7004038905
  O         2.6536828732       14.3325720555       10.7071578170
  O        14.1717101663       14.3322728108        8.8988182251
 Si         3.0389528420       13.9907640151        9.1724158334
 Si         0.6592870291        3.0912878584        8.6972407173
  O         1.8941018651        3.7931707860        9.4735759873
  O        14.8329367853        1.8824770312        9.4829182066
 Si         3.0012676635       14.8379400373       12.1915656425
 Si        13.5792902331        0.8761563760        9.4555439538
  O         2.2379612680        1.4066422396       12.4465873465
  O         4.5265541814       14.4992193874        8.7440284171
  O         4.6098898899        0.0803581525       12.2753226629
  O        13.0297373817        0.8185012937       10.9690754901
  O         1.1481995892        3.8009473154       12.7627551406
  O         2.5667971258       13.8379708540       13.3897690598
  O         4.8575708586        1.2379468975        6.7568966270
 Si         1.8033893206        2.5423704652       13.5189249483
  O         9.9648354872        4.6079456791       12.4246925155
 Si        10.8380418424        1.8158245057        8.8062765812
  O         8.3344087859        4.2801736881        7.8202169600
 Si         6.7537668414        4.5686998175        8.0251583780
  O         9.6450567224        1.1488734646        7.9245694812
  O         5.5231429198        1.8892558454       13.8454379041
  O         6.3465901673        3.4587770170        9.1532763840
 Si         5.4595156110       14.7589671521        7.4326635041
 Si         8.5685111890        4.8097859985       11.6820417215
  O        11.0412004538        0.4940750978       12.6991695895
  O         7.8258613902        1.2124963070        9.7911221002
  O        10.4702079000       13.0222203440        6.5029315823
 Si        11.6840473612        1.4475056926       11.5878523645
 Si         9.9753628256       12.6476482428        8.0079738708
 Si        10.9840787776        3.7465947498       13.2940520935
  O         5.8607894828        4.1170618040        6.7509805105
  O         5.3620870167       13.5910575824        6.3446574137
  O        10.6262530172        1.4885494070       10.3771521961
  O         8.1652615311        3.3910234355       11.0526784802
  O         8.9783346151       13.6961185865        8.7372700996
  O         5.8621163457        2.1402778230       11.2725065593
 Si         8.0193683290       14.1968459894       13.5607146916
 Si         8.3602045806        0.3494354638        8.5393393544
  O        12.3522789367        1.3227004989        8.4860169205
  O         7.2469126583        0.3310660463       12.5238897209
  O        10.7147149250        3.3846295801        8.6490691895
  O         8.8215011202       13.0155236372       12.7931388894
 Si         7.0523575507        2.5545216777       10.2656240496
 Si         9.9212737475        4.4832518604        7.7877970894
  O         7.0271503218        0.1676583118        7.6653193025
  O        11.9529815535        2.9000788977       12.2784909793
 Si         5.8287254608        1.0968270787       12.4845473112
     216
 i =       2, E =    -2602.4599086843
 Si         1.3853049587       10.2407074176        4.2659229297
  O         1.8137282160       11.1197804574        2.9667038806
  O         0.5830149640        9.0065390547        3.6295151535
  O         0.4928308710        6.4978577755        3.9662038727
 Si        14.3416301313        7.7946219572        3.8132929218
  O         0.4101567569       10.7215682626        0.6682170407
  O         2.6636739409        9.8263738074        5.1872549339
 Si         1.1113254660        7.3274072490        0.1219997027
  O         3.0394766735       10.2327612755        0.8196326339
 Si         1.8076824565       11.1185257102        1.3563053356
  O        14.7433368484        8.3974486156       14.7485500903
  O         1.1532298347        6.6097163360        1.5477571436
  O         0.4059266420       11.1191577576        5.1914274883
 Si         1.6197670235        5.9834678059        2.9514797657
  O         3.1236277035        6.5112760743        3.1343249845
  O        13.6798920698        8.0052506498        5.2701102647
 Si         4.4995609193        6.0769044933        3.8398475513
 Si        14.2124914763        9.9283880234       14.5678880478
 Si         3.5721559231        9.2504635385       14.5056725873
  O         2.5548147493        7.9878466613       14.5807119759
 Si         4.0636208373       10.0782484486        5.9789743447
  O        12.7087092656       10.3755749472       14.9162198148
  O         4.7916553090       11.3805893996        5.3529894134
  O        13.2047960767        7.6710063894        2.7301078717
  O         5.1195343644        8.9042733893        5.7713838597
  O         0.8267763093        6.0876378358       13.9928466015
  O        13.0208090516       12.4436030216        5.7761593055