     216
 i =       0, E =    -2602.5447918135
 Si         1.3616270000       10.2308020000        4.2745010000
  O         1.8173600000       11.0453410000        2.9488380000
  O         0.4188240000        9.0605620000        3.6302780000
  O         0.4152000000        6.5238470000        3.9505770000
 Si        14.2637890000        7.8206930000        3.9601680000
  O         0.3395990000       10.7131140000        0.7337620000
  O         2.6424100000        9.8193540000        5.1809110000
 Si         1.1525630000        7.3451600000        0.1162220000
  O         3.0425190000       10.2991480000        0.7401040000
 Si         1.7843360000       11.1136080000        1.3404850000
  O        14.7503910000        8.4016870000       14.7490860000
  O         1.1679570000        6.6846020000        1.5750760000
  O         0.3992820000       11.1242570000        5.1954460000
 Si         1.6659650000        6.0671350000        2.9927910000
  O         3.1697030000        6.6074440000        3.2184920000
  O        13.6844820000        8.0712720000        5.4322320000
 Si         4.6249950000        6.2618790000        3.9527780000
 Si        14.2192530000        9.9350810000       14.5405210000
 Si         3.6523130000        9.2482160000       14.5135970000
  O         2.6046060000        7.9936620000       14.5819350000
 Si         4.0499130000       10.1248700000        5.9921490000
  O        12.6895170000       10.3770450000       14.8426300000
  O         4.7677240000       11.4470310000        5.3558720000
  O        12.8696730000        7.6563620000        3.1215760000
  O         5.1099740000        8.9846140000        5.8496400000
  O         0.8342060000        6.0963840000       14.0039660000
  O        13.0211620000       12.4424750000        5.7721330000
  O         4.1206190000        5.6855740000        5.3644640000
  O         1.9150670000       12.6094910000        0.8257890000
 Si        12.6849040000        7.1145850000        6.2597740000
 Si        14.2753780000       11.6119960000        6.3811170000
  O         5.1856710000        8.9087530000        0.0885470000
  O         5.6754370000        7.4150590000        4.1246180000
  O         6.7622350000        7.0121100000        6.5128780000
  O         7.7504260000        8.7350930000       14.0094570000
  O        11.7017940000        6.2656780000        5.2738390000
 Si         6.5720430000        8.2522500000        5.4735810000
 Si         6.6436910000        8.1749390000        0.2015360000
  O         7.7436340000        8.6433760000        4.2810080000
  O         7.4014630000        8.4126680000        1.6153850000
 Si        11.4474590000        7.9890240000        2.3736530000
  O        11.5432240000        7.0030940000        1.0694280000
  O        11.6148330000        9.5633230000        2.1266010000
 Si        11.3129520000       10.4738620000        0.8496240000
  O        10.9555060000       11.9547560000        1.4021340000
  O         9.8969250000        7.9115000000        2.8845250000
 Si         8.2179180000        7.9141640000        2.9587880000
  O         7.8981170000        6.3516560000        2.8961420000
  O        10.0655920000        9.8841660000       14.8393580000
 Si         6.0507710000       12.3099240000        5.8071230000
 Si        11.4610070000       12.0388470000        5.6106000000
  O        11.1218420000       12.1087530000        4.0447430000
  O         6.2681180000        6.6776250000       14.5098020000
 Si        11.2062440000        5.4370680000        0.8479350000
  O        11.3128690000       10.5515850000        6.2593390000
  O         7.1642970000       12.4470360000        4.6191980000
  O         3.8554140000        3.1262590000        5.3390380000
  O         2.4793110000        0.9194560000        5.6068800000
  O         1.7181940000        4.4384840000        3.1355430000
  O         0.6487980000        1.9772030000       14.5147380000
 Si         2.7721520000       13.7677650000        0.1691250000
  O         2.0657190000        0.2285250000        0.8245710000
  O         0.5774740000        2.4879110000        4.7740170000
  O         1.0841990000        1.9873840000        2.3108880000
 Si         0.7135890000        1.0908670000        1.0403120000
  O        14.0991800000        0.3394320000        1.3287740000
 Si         0.7150470000        3.1785440000        3.3193570000
  O         4.3450440000       13.5278670000        0.5007090000
  O        14.1128950000        3.7189770000        2.8910230000
 Si         3.9682750000        1.5270080000        5.4486210000
 Si         4.7309440000        3.1488430000       14.5505370000
  O         3.1319920000        2.9607810000       14.3540490000
 Si         1.0839010000        1.6106740000        6.0243650000
  O         4.6108540000        0.7416050000        4.1894930000
 Si         4.3398950000        4.3896660000        6.2467900000
  O         5.2906690000        5.0139770000        3.1269010000
  O        10.3054480000        4.3701380000        6.2551120000
  O         5.1917350000        3.2997890000        1.2340340000
  O         7.6501040000        4.0243080000        2.1405160000
  O         5.1234080000        4.4702940000       13.7572260000
  O         9.1456880000        0.1588350000       14.4303160000
  O         9.6347680000        5.2710010000        1.1442350000
 Si        10.7098880000       12.8999540000        2.7075230000
  O         6.8451340000       13.6903270000       14.6003790000
  O        11.6955700000        0.5728040000        0.3222650000
  O        12.2816930000        1.8997440000        2.4810760000
 Si         5.8373280000       13.8736300000        1.0176720000
  O        11.9566140000        3.7184060000        4.3748840000
  O         5.6906110000        0.4933990000        1.7335390000
 Si         5.9307150000        0.9496270000        3.2818690000
  O         9.8198770000        4.9343010000        3.7329100000
 Si         8.7780180000        5.1050510000        2.5042850000
 Si        12.5529960000        3.4302730000        2.9133100000
  O        11.7238820000       14.1747270000        2.5487030000
 Si        12.4973070000        0.5043330000        1.7031630000
  O        11.6265140000        4.8540390000       14.2419040000
 Si         6.0803150000        3.7889720000        2.4933170000
  O         6.2424650000        2.5012120000        3.4548660000
  O         6.5221710000       12.9395480000        2.1550000000
 Si        10.5188540000        0.9433780000       14.1478940000
  O        11.9594520000        4.5134370000        1.9064760000
  O        10.2985470000        2.5534460000       14.1721150000
  O         9.1220890000       13.2701380000        2.8805110000
 Si         7.5573840000       13.3563780000        3.3558090000
  O         7.1879270000       14.8892250000        3.7745140000
 Si        10.9368590000        4.8633480000        4.9003620000
  O         3.2335810000       10.3063740000       10.3047830000
 Si         3.7875280000       11.1222090000        9.0105630000
 Si        13.3533880000        9.8988370000       11.6789720000
  O        14.1589520000        8.6253520000       11.0384950000
 Si         4.0613620000        9.5326290000       11.4658060000
 Si        13.8243740000        7.0179120000       11.0192360000
  O         3.6261870000        8.0193250000       11.2190310000
 Si         3.8302020000        6.4471590000       11.2665000000
  O        13.6851080000        6.5978360000        9.4778770000
  O         0.1572710000        6.0235910000       11.5451000000
  O         3.7076120000       10.3854180000        7.5810250000
  O         1.2492960000        6.0248920000        8.3312230000
  O        13.6762830000        6.0957010000        7.0036360000
  O         3.6372300000        9.8808820000       13.0104000000
 Si        14.4698290000        5.7629400000        8.3500560000
  O        14.2679900000       10.3061380000       12.9533230000
  O         2.7144320000        5.7708020000       12.2079300000
  O        13.6635480000       10.3826170000        7.2616300000
  O         3.5443540000        5.8484350000        9.8038880000
  O         2.8882850000       12.4389140000        8.9034020000
 Si         1.2103050000        5.4094970000       12.6094600000
  O        12.9366030000       11.2118200000       10.7917280000
  O         5.2764220000        6.2577580000       11.9557430000
 Si         2.5578560000        5.1219490000        8.7755730000
  O         5.2651780000       11.6255600000        9.4662370000
  O        12.4268700000        6.8424320000       11.8532910000
  O        11.9632810000        8.1763240000        7.2431940000
  O         5.6485990000        9.8766620000       11.2824720000
  O        11.8761150000        9.3244820000       12.0314530000
 Si        12.1362530000        9.7773650000        7.4413460000
  O        11.6177510000       10.0432050000        8.9607210000
  O         7.3249180000       10.1259960000        9.0765530000
 Si        11.5386160000       11.3562030000        9.9282070000
  O        10.4454320000        7.7543330000       10.3719810000
 Si         6.4529610000       10.8140610000       10.2065340000
  O         6.4304000000        5.6844810000        8.7355480000
 Si         6.5233640000        7.3489050000        8.2237680000
  O         8.2460950000        7.5888690000        8.6650930000
 Si        11.1528140000        7.8866280000       11.8032990000
  O         7.5001340000       11.7884390000       10.9750390000
 Si         9.3677150000        6.8761130000        9.4865210000
  O         9.2219520000       11.2041600000        7.8259430000
 Si         8.8972450000       11.7115140000       11.7793370000
  O         7.5070280000        9.3987010000        6.5060170000
  O        10.2516820000       11.6929040000       10.8775220000
 Si         7.7440130000       10.5198140000        7.5594030000
  O         8.7250890000        5.9289420000       10.6284520000
  O        10.0587780000        7.9086290000       13.0155280000
  O         8.9852000000       10.3059440000       12.5248850000
  O        10.2246230000        5.9176370000        8.4744820000
 Si         6.0471690000        5.6757530000       13.2541900000
  O         6.8339040000       11.7934270000        7.0944740000
  O        11.3670200000       12.5298080000        8.8123780000
  O         7.4908450000        5.1749600000       12.7880710000
 Si         9.2380570000        9.1865340000       13.6271820000
  O         0.3306160000       12.6323530000        7.2529020000
  O         0.0947930000        0.4068800000        6.5074400000
  O         3.3798760000        4.6140210000        7.5137410000
  O         1.2286870000        2.6350740000        7.2581780000
  O         1.8831980000       14.6035890000        8.2375330000
  O        14.3223860000        4.1785180000        8.5652680000
 Si         0.4182330000       14.1685530000        7.7023700000
  O         2.7170970000       14.3380610000       10.7100150000
  O        14.1715550000       14.3330050000        8.8970140000
 Si         3.0569690000       14.0015330000        9.1655860000
 Si         0.6658030000        3.0898530000        8.6987990000
  O         1.8953320000        3.7948950000        9.4754370000
  O        14.8335800000        1.8824870000        9.4830410000
 Si         3.0156300000       14.8405430000       12.1998350000
 Si        13.5786390000        0.8780630000        9.4490870000
  O         2.2387060000        1.4052940000       12.4479240000
  O         4.5382560000       14.5062410000        8.7264630000
  O         4.6218700000        0.0893660000       12.2920720000
  O        13.0309330000        0.8131470000       10.9646470000
  O         1.1478460000        3.8042380000       12.7659410000
  O         2.5643650000       13.8375700000       13.3939290000
  O         4.8605090000        1.3087560000        6.7637580000
 Si         1.8038760000        2.5422600000       13.5188900000
  O         9.9716990000        4.5273530000       12.3668110000
 Si        10.8479520000        1.8744150000        8.8077960000
  O         8.3260320000        4.1223970000        7.7508510000
 Si         6.7432980000        4.3217940000        8.0181280000
  O         9.6392150000        1.1597270000        7.9955410000
  O         5.5217320000        1.8851670000       13.9276490000
  O         6.4135050000        3.0444920000        8.9846200000
 Si         5.4686990000       14.8101390000        7.4128480000
 Si         8.5533020000        4.7622960000       11.6647620000
  O        11.0450830000        0.4988620000       12.6894300000
  O         7.8347420000        1.0029500000        9.9064740000
  O        10.4662310000       13.0247420000        6.4403850000
 Si        11.7003490000        1.4615280000       11.5858350000
 Si         9.9653350000       12.6209070000        7.9461300000
 Si        10.9972030000        3.7253570000       13.2709220000
  O         5.8581710000        4.1126170000        6.6801190000
  O         5.3560200000       13.6909970000        6.2688160000
  O        10.6352980000        1.5773760000       10.3868220000
  O         8.1619530000        3.3784870000       10.9556750000
  O         8.9930920000       13.6614310000        8.7133040000
  O         5.9304690000        2.1415740000       11.3552270000
 Si         8.0282170000       14.1520500000       13.6009660000
 Si         8.3682350000        0.3025910000        8.5611400000
  O        12.3482960000        1.3272220000        8.4881060000
  O         7.2537290000        0.3272910000       12.6091470000
  O        10.7867190000        3.4464810000        8.5737720000
  O         8.8098240000       12.9452960000       12.8510900000
 Si         7.0938950000        2.3997910000       10.2707860000
 Si         9.8689440000        4.5160740000        7.7818950000
  O         7.0457030000        0.1794300000        7.6610720000
  O        12.0191640000        2.8985870000       12.2944370000
 Si         5.8385610000        1.0981640000       12.5599180000
     216
 i =       1, E =    -2602.5446218781
 Si         1.3617880887       10.2307962691        4.2745146231
  O         1.8173961737       11.0453790359        2.9489050393
  O         0.4187156284        9.0605816303        3.6303177284
  O         0.4152403405        6.5238629702        3.9506688683
 Si        14.2636733773        7.8205678098        3.9602159593
  O         0.3395758734       10.7131993710        0.7337548615
  O         2.6423302223        9.8193986519        5.1808876013
 Si         1.1524945924        7.3451167553        0.1162624113
  O         3.0426126026       10.2992000140        0.7401404263
 Si         1.7844217605       11.1137770184        1.3404944859
  O        14.7504985957        8.4017012663       14.7490136542
  O         1.1680161491        6.6845280997        1.5749908803
  O         0.3992468958       11.1243883945        5.1954458721
 Si         1.6661257480        6.0670572473        2.9926779612
  O         3.1698049905        6.6073702531        3.2184511857
  O        13.6845161569        8.0711914445        5.4322469346
 Si         4.6250806274        6.2623154302        3.9526412480
 Si        14.2192881943        9.9349728689       14.5404953514
 Si         3.6522918510        9.2481723091       14.5136070267
  O         2.6046122798        7.9936468304       14.5820188816
 Si         4.0497746489       10.1246800698        5.9921092940
  O        12.6895347712       10.3772035480       14.8426509061
  O         4.7676020896       11.4471492082        5.3557810220
  O        12.8697153467        7.6564252044        3.1215858419
  O         5.1100395538        8.9844529267        5.8496031131
  O         0.8341691273        6.0963469786       14.0040448828
  O        13.0211722551       12.4424022188        5.7720534580
  O         4.1206913022        5.6856571301        5.3645280486
  O         1.9150245038       12.6095120310        0.8258110628
 Si        12.6849763844        7.1146191113        6.2598814338
 Si        14.2753550592       11.6119099076        6.3812816422
  O         5.1856599318        8.9088487819        0.0885858312
  O         5.6754798705        7.4151171712        4.1246645990
  O         6.7624063759        7.0122187144        6.5128491621
  O         7.7504732909        8.7352575699       14.0094205974
  O        11.7018116644        6.2657280509        5.2738960883
 Si         6.5721219434        8.2520317543        5.4737025242
 Si         6.6436217096        8.1748721424        0.2017993790
  O         7.7435477340        8.6433477509        4.2810299951
  O         7.4014393815        8.4127370716        1.6153717136
 Si        11.4475138318        7.9891201359        2.3737191525
  O        11.5433482252        7.0031401880        1.0694759121
  O        11.6148082269        9.5631944562        2.1266708520
 Si        11.3128623259       10.4741444220        0.8495331715
  O        10.9554666868       11.9548147952        1.4020648383
  O         9.8968857578        7.9115726696        2.8844662497
 Si         8.2180415960        7.9143318416        2.9588813912
  O         7.8982371569        6.3516405351        2.8961030877
  O        10.0655207719        9.8843704965       14.8393326875
 Si         6.0508694249       12.3097456436        5.8071788639
 Si        11.4610247168       12.0387938351        5.6105689337
  O        11.1217528653       12.1087791316        4.0447171197
  O         6.2680768352        6.6776054855       14.5096393306
 Si        11.2063614258        5.4372234234        0.8479940891
  O        11.3128351482       10.5516774810        6.2593957612
  O         7.1643402151       12.4469796076        4.6192239242
  O         3.8554701729        3.1260941796        5.3393281981
  O         2.4791617804        0.9196109029        5.6068244427
  O         1.7180919571        4.4384994613        3.1353620636
  O         0.6488712451        1.9772544173       14.5145677611
 Si         2.7721511451       13.7677801951        0.1691522400
  O         2.0657347436        0.2284931506        0.8245906467
  O         0.5774224981        2.4878267533        4.7740326890
  O         1.0841240318        1.9873517756        2.3109110788
 Si         0.7135881226        1.0907501684        1.0404453196
  O        14.0992128720        0.3394603871        1.3288488594
 Si         0.7151643989        3.1785596244        3.3192897012
  O         4.3449632079       13.5277941080        0.5008443295
  O        14.1128926262        3.7188751309        2.8910302488
 Si         3.9682039722        1.5270457963        5.4484017190
 Si         4.7305429382        3.1489144185       14.5505550796
  O         3.1318682128        2.9608553852       14.3540292112
 Si         1.0838416691        1.6105917008        6.0244132437
  O         4.6107573794        0.7416007447        4.1893697998
 Si         4.3398404533        4.3896632435        6.2468411312
  O         5.2907471160        5.0139958660        3.1267886800
  O        10.3054060846        4.3701526494        6.2551521885
  O         5.1917469976        3.2998642744        1.2339282292
  O         7.6500487033        4.0241986954        2.1405775630
  O         5.1234353856        4.4703433087       13.7572700448
  O         9.1455477460        0.1588359557       14.4304085745
  O         9.6346691136        5.2709792684        1.1443438205
 Si        10.7098818438       12.8998976819        2.7074776307
  O         6.8452872984       13.6901428736       14.6003019776
  O        11.6955705386        0.5727972478        0.3222592508
  O        12.2817307491        1.8996485871        2.4809750899
 Si         5.8372902729       13.8732956815        1.0178139500
  O        11.9566040257        3.7183264383        4.3749111095
  O         5.6905586305        0.4934803388        1.7336110060
 Si         5.9307441070        0.9497844511        3.2818482158
  O         9.8198204348        4.9341638414        3.7329821049
 Si         8.7778246271        5.1048937758        2.5042859756
 Si        12.5532204736        3.4301818012        2.9133590834
  O        11.7239008134       14.1747253637        2.5488012707
 Si        12.4974286374        0.5043719283        1.7032462049
  O        11.6266422414        4.8539334805       14.2419869357
 Si         6.0805440909        3.7890274714        2.4932025066
  O         6.2426707235        2.5011620407        3.4547949396
  O         6.5221400557       12.9395452707        2.1549877280
 Si        10.5188681128        0.9435189618       14.1479823054
  O        11.9594694868        4.5133787448        1.9065022370
  O        10.2986222763        2.5533351124       14.1720687113
  O         9.1221403828       13.2700328223        2.8806022346
 Si         7.5574166390       13.3563839847        3.3557681202
  O         7.1881176590       14.8889692275        3.7744641222
 Si        10.9366657045        4.8631935173        4.9002375234
  O         3.2334702049       10.3064284170       10.3047367287
 Si         3.7875154284       11.1219794297        9.0106450085
 Si        13.3534827377        9.8991104771       11.6787631321
  O        14.1590061755        8.6254193412       11.0385482924
 Si         4.0614601735        9.5326406271       11.4657035951
 Si        13.8243198474        7.0179416024       11.0192776502
  O         3.6261378726        8.0193317146       11.2190016564
 Si         3.8303024307        6.4471772811       11.2663823109
  O        13.6851687559        6.5977915992        9.4779251395
  O         0.1571353619        6.0236671066       11.5451745569
  O         3.7074318192       10.3853447746        7.5810616810
  O         1.2492781753        6.0249441368        8.3311300447
  O        13.6763430476        6.0957144262        7.0035338317
  O         3.6372119555        9.8809232117       13.0104395943
 Si        14.4696875751        5.7629186062        8.3498317704
  O        14.2679786032       10.3061412051       12.9532890694
  O         2.7145063462        5.7709123388       12.2080298007
  O        13.6636086913       10.3826453177        7.2615001154
  O         3.5443632717        5.8484286319        9.8038355240
  O         2.8882428902       12.4388252306        8.9034827286
 Si         1.2102620476        5.4095007088       12.6095506671
  O        12.9366613358       11.2118351033       10.7917951945
  O         5.2764589803        6.2577626427       11.9556929952
 Si         2.5580847853        5.1219432554        8.7755113060
  O         5.2651006335       11.6254744166        9.4664871155
  O        12.4269571420        6.8426215225       11.8531795953
  O        11.9634321783        8.1764383190        7.2430542712
  O         5.6486197772        9.8767010832       11.2824731047
  O        11.8761882541        9.3244638972       12.0313803410
 Si        12.1362364569        9.7771816690        7.4413253877
  O        11.6177543351       10.0433229840        8.9605550402
  O         7.3249039634       10.1259693863        9.0763679509
 Si        11.5387985876       11.3564533722        9.9280617935
  O        10.4454029773        7.7542741692       10.3719349800
 Si         6.4527174941       10.8141110397       10.2064797181
  O         6.4306067943        5.6844593216        8.7353890711
 Si         6.5231823465        7.3492021612        8.2237765028
  O         8.2460698367        7.5888222805        8.6651345671
 Si        11.1530351460        7.8867422592       11.8034282032
  O         7.5000238094       11.7884739261       10.9752347773
 Si         9.3674990946        6.8763273975        9.4865166987
  O         9.2220877628       11.2043091279        7.8258784007
 Si         8.8973433334       11.7114701656       11.7795027273
  O         7.5070677630        9.3985247587        6.5059866238
  O        10.2518161603       11.6928969544       10.8775074288
 Si         7.7442043481       10.5196475655        7.5595028998
  O         8.7250895206        5.9290825284       10.6285322945
  O        10.0587766399        7.9088290552       13.0155209899
  O         8.9851708851       10.3059964920       12.5249174112
  O        10.2245172996        5.9175312955        8.4745584726
 Si         6.0472327081        5.6757596066       13.2544813002
  O         6.8339394838       11.7934340226        7.0944349026
  O        11.3668090739       12.5296342920        8.8124339724
  O         7.4907463323        5.1748397076       12.7881339187
 Si         9.2378214888        9.1863933461       13.6270861870
  O         0.3306094283       12.6323327930        7.2528632375
  O         0.0947913171        0.4069252603        6.5074044931
  O         3.3797793666        4.6140120737        7.5138393464
  O         1.2285626212        2.6349985940        7.2582922222
  O         1.8831004469       14.6035348273        8.2374609158
  O        14.3224501973        4.1786045509        8.5651761116
 Si         0.4181390621       14.1682878094        7.7023681593
  O         2.7171558484       14.3381040517       10.7100136357
  O        14.1715277120       14.3330495316        8.8970359260
 Si         3.0569427072       14.0016573289        9.1656661566
 Si         0.6658099145        3.0899462465        8.6988142253
  O         1.8953980026        3.7946390443        9.4751764158
  O        14.8335661257        1.8824233234        9.4830628029
 Si         3.0154070975       14.8404137958       12.1995848593
 Si        13.5785362132        0.8780541358        9.4493334608
  O         2.2386281664        1.4054254807       12.4480465661
  O         4.5381765057       14.5063113986        8.7265068049
  O         4.6218184628        0.0894102788       12.2920237666
  O        13.0310103725        0.8132218720       10.9646859198
  O         1.1478339181        3.8041311875       12.7660841257
  O         2.5643698166       13.8375098040       13.3939358448
  O         4.8604929038        1.3087835721        6.7636971419
 Si         1.8036514934        2.5421683045       13.5187834997
  O         9.9715854068        4.5272988621       12.3668036223
 Si        10.8480966334        1.8744892149        8.8077325593
  O         8.3262015272        4.1224209855        7.7507480705
 Si         6.7431684645        4.3222436037        8.0179067422
  O         9.6392915187        1.1596988874        7.9953804855
  O         5.5218685788        1.8852564398       13.9275918476
  O         6.4134751652        3.0445052680        8.9848219306
 Si         5.4686737323       14.8101917915        7.4127850111
 Si         8.5530388050        4.7620824936       11.6646502169
  O        11.0451409142        0.4988242997       12.6893841199
  O         7.8346724678        1.0029340675        9.9065556301
  O        10.4661603291       13.0247751562        6.4403901681
 Si        11.7003369297        1.4613157739       11.5858799600
 Si         9.9656569718       12.6210003706        7.9459944351
 Si        10.9975482191        3.7252955200       13.2711494366
  O         5.8580400135        4.1126285352        6.6800530212
  O         5.3560688053       13.6909529835        6.2688619030
  O        10.6355175431        1.5773135637       10.3868143185
  O         8.1618952087        3.3785632394       10.9558868636
  O         8.9930414187       13.6615587793        8.7131767478
  O         5.9304449790        2.1415466646       11.3552394013
 Si         8.0284027327       14.1518160119       13.6010142653
 Si         8.3682077054        0.3024854091        8.5612961581
  O        12.3482810101        1.3272342671        8.4880843042
  O         7.2537271292        0.3272095621       12.6091705293
  O        10.7868107106        3.4464232416        8.5736935719
  O         8.8098302043       12.9453430838       12.8511920199
 Si         7.0935863918        2.3997108334       10.2709011940
 Si         9.8690606281        4.5159832493        7.7818588036
  O         7.0456727780        0.1793596045        7.6609939245
  O        12.0191807931        2.8985006983       12.2943938255
 Si         5.8385758349        1.0982834710       12.5597588624
     216
 i =       2, E =    -2602.5446282154
 Si         1.3616877210       10.2308272366        4.2745160505
  O         1.8174373719       11.0454146875        2.9489093489
  O         0.4186692663        9.0605941298        3.6303567142
  O         0.4153438339        6.5238236871        3.9506565830
 Si        14.2636890732        7.8205288070        3.9602358748
  O         0.3395900781       10.7132293925        0.7337536683
  O         2.6423496811        9.8193791208        5.1809176586
 Si         1.1525008891        7.3451086711        0.1162389964
  O         3.0426607611       10.2992415316        0.7401751890
 Si         1.7844393809       11.1137948416        1.3405216902
  O        14.7505387738        8.4016870860       14.7489882809
  O         1.1680535206        6.6844532134        1.5750102855
  O         0.3992779803       11.1244123556        5.1954200220
 Si         1.6661328279        6.0670664166        2.9926343825
  O         3.1698894766        6.6073516564        3.2183966549
  O        13.6845304854        8.0711644913        5.4322844295
 Si         4.6250968642        6.2623436907        3.9526238678
 Si        14.2192871083        9.9349962537       14.5404770443
 Si         3.6522525855        9.2481758818       14.5135992080
  O         2.6045944166        7.9936128409       14.5820807266
 Si         4.0498003896       10.1246202237        5.9920691881
  O        12.6895624941       10.3772845120       14.8426628137
  O         4.7674823403       11.4470909129        5.3557885216
  O        12.8697111299        7.6564404685        3.1215800643
  O         5.1099865371        8.9844411950        5.8496102048
  O         0.8341331738        6.0963169404       14.0040978167
  O        13.0211792345       12.4423710680        5.7720383081